8
Lattice="50.0 0.0 0.0 0.0 50.0 0.0 0.0 0.0 50.0" Properties=species:S:1:pos:R:3:forces:R:3 energy=-4209.40516509415 config_type=C1-4 pbc="F F F"
C       -1.62840152      -0.37075213      -0.00382227      -5.28453171      -3.16421072       0.59459790
C       -0.64824885       0.40373766       0.01092238       3.09682145       5.59826620      -0.07090416
C        0.74097139       0.26398960      -0.21126373       5.33143162      -4.30225836       2.36799930
C        1.86825371      -0.26794094       0.08327051      -3.47675770       3.48223454      -1.72427016
H       -2.70772314       0.05711336       0.20306806       2.40038684      -1.37822867      -0.42006870
H       -1.33723688      -1.40824032      -0.04185092      -1.04950125      -0.64097563      -0.52151628
H       -0.90577459       1.40605712       0.30104554       0.14483696       0.87115647      -0.27815996
H        2.95528626      -0.22913523       0.26309600      -1.12421011      -0.40675580      -0.29392433
