34
Lattice="50.0 0.0 0.0 0.0 50.0 0.0 0.0 0.0 50.0" Properties=species:S:1:pos:R:3:forces_wb97x_tz:R:3 energy_wb97x_tz=-12802.477744518068 config_type=C9-12 pbc="F F F"
C        2.90404844      -0.22182283      -0.75169027       3.31747640      -1.10542310      -1.33070535
C       -1.52295744       1.29243124       0.34537536       1.32310684      -1.65689993       1.92938088
C       -3.19653106      -0.44817722      -0.57441622       1.43658404       0.62168221      -0.07011367
C       -2.21397018      -1.51560414      -0.19454707       2.24629992      -2.04059000      -0.96799880
C       -0.71167636      -1.00818372      -0.25449547      -3.44338539      -1.08135735      -1.39917491
C       -0.57558727       0.02198271       0.72842348      -0.64466386       3.78215354       2.16559475
C       -2.96719456       0.88574690       0.14666902      -2.72940978       1.49617153       0.86827070
C        1.27510595       1.54122901      -0.32283080      -1.01120204      -1.12428549       2.56636459
C        0.82760203       0.60884017       0.89962697       1.63007495       1.67410569       0.85567292
C        1.90980041      -0.43569872       1.34725320      -2.68097106      -0.75369390      -0.16551053
C        2.39131045      -1.27892709       0.13480720      -0.79457465       1.70912811       1.65232026
C        1.85667312       0.62594593      -1.34876931      -0.09887665       1.41654557      -0.91341466
H       -0.97526771      -0.37821972       1.73198986       0.77219573       0.42786966      -1.21897213
H       -3.64860249       1.65955400      -0.51199687       1.86447410      -1.39273615       2.08372223
H       -3.38680720       0.76253080       1.18093407      -0.29095013       0.37259081      -0.89469922
H       -3.13123679      -0.29022044      -1.64217818       0.69053926       0.17433274      -0.53784447
H       -4.20539808      -0.72897857      -0.53446853      -1.58641374      -0.58053342       0.91249737
H       -2.12663412      -2.29555535      -0.98487443      -0.94418013       0.26638614       0.35293957
H       -2.27543736      -2.14993453       0.74755949      -0.62902738       1.35262303      -0.75613693
H       -0.43102887      -0.80781788      -1.29948580      -0.24745436       0.41560603       0.47070555
H       -0.21883275      -1.86135149       0.03445351       1.61022533      -1.94499504       0.61990776
H        1.09415829       0.03416963      -1.86678708       0.32819054       0.18762305       0.02633926
H        2.81346631      -0.08990430       1.85381818      -0.24194269       0.74197749      -0.19118856
H        1.99577785       2.24962664       0.10188401       0.31182371      -0.25653044      -0.36768351
H        0.39498290       2.14924431      -0.54901600       0.60334555      -0.20338470      -0.77836401
H        0.81994092       1.32725155       1.73378837      -0.48862833      -0.18214540       0.07792960
H        1.34438038      -0.97921664       2.14315987       0.59473096      -0.26630341      -0.58954012
H       -1.24975884       1.52325428      -0.59621787       1.27306973       0.90737510      -3.35573969
H        1.66951346      -1.87237883      -0.34502512      -0.84868340      -0.99496991      -0.25144654
H        3.15428209      -1.80202067       0.59042150       1.81302962      -1.90443184       0.21653596
H        3.55898452       0.28900376      -0.03849494       0.10053410       0.90343951      -0.66789857
H        3.64619017      -0.56166041      -1.56062067      -1.22613172      -0.03762083       0.96182780
H        2.36234140       1.24930346      -2.05043173       0.16509257       0.40659770      -1.14044824
H       -1.06475568       2.16674709       0.92915148      -1.99954244      -1.01496320      -0.15491823
